,ll,Bluewidth,Redwidth,Maxratio,fmin,fmin_sp,Blueratio,Redratio,Fullratio,Element,ionisation,Teff,logg,FeH,Resolution,min_snr_res,min_snr_AA
216,4218.1,4217.8,4218.4,0.618,0.909,0.835,0.618,0.287,0.377,Fe,1,5750.0,4.5,0.0,20000,49,107
217,4219.4,4219.0,4219.7,0.966,0.409,0.403,0.966,0.948,0.957,Fe,1,5750.0,4.5,0.0,20000,7,16
220,4222.2,4221.9,4222.5,0.93,0.409,0.391,0.93,0.844,0.885,Fe,1,5750.0,4.5,0.0,20000,7,16
221,4223.7,4223.4,4224.0,0.662,0.868,0.739,0.169,0.662,0.335,Fe,1,5750.0,4.5,0.0,20000,34,74
222,4224.2,4223.9,4224.5,0.927,0.472,0.444,0.848,0.927,0.895,Fe,1,5750.0,4.5,0.0,20000,8,18
223,4224.5,4224.2,4224.8,0.925,0.56,0.526,0.925,0.599,0.771,Fe,1,5750.0,4.5,0.0,20000,10,22
224,4225.5,4225.1,4225.8,0.749,0.507,0.419,0.591,0.749,0.677,Fe,1,5750.0,4.5,0.0,20000,9,19
225,4226.0,4225.6,4226.3,0.614,0.667,0.445,0.614,0.319,0.453,Fe,1,5750.0,4.5,0.0,20000,13,29
226,4227.4,4227.1,4227.7,0.685,0.352,0.252,0.549,0.685,0.609,Fe,1,5750.0,4.5,0.0,20000,6,15
227,4229.4,4229.1,4229.7,0.845,0.587,0.557,0.708,0.845,0.806,Fe,1,5750.0,4.5,0.0,20000,10,23
228,4230.6,4230.3,4230.8,0.667,0.824,0.76,0.478,0.667,0.545,Fe,1,5750.0,4.5,0.0,20000,25,55
229,4232.7,4232.4,4233.0,0.603,0.736,0.657,0.603,0.354,0.433,Fe,1,5750.0,4.5,0.0,20000,17,37
230,4233.6,4233.3,4233.9,0.944,0.319,0.315,0.843,0.944,0.892,Fe,1,5750.0,4.5,0.0,20000,6,14
231,4234.0,4233.7,4234.4,0.851,0.719,0.628,0.851,0.656,0.777,Fe,1,5750.0,4.5,0.0,20000,16,34
232,4235.4,4235.1,4235.7,0.773,0.69,0.508,0.294,0.773,0.497,Fe,1,5750.0,4.5,0.0,20000,14,31
233,4235.9,4235.6,4236.3,0.913,0.239,0.207,0.913,0.759,0.83,Fe,1,5750.0,4.5,0.0,20000,5,12
234,4237.7,4237.4,4238.0,0.678,0.78,0.713,0.603,0.678,0.652,Fe,1,5750.0,4.5,0.0,20000,20,44
235,4238.0,4237.7,4238.3,0.69,0.592,0.496,0.69,0.6,0.646,Fe,1,5750.0,4.5,0.0,20000,11,23
236,4238.8,4238.5,4239.1,0.904,0.435,0.38,0.904,0.716,0.803,Fe,1,5750.0,4.5,0.0,20000,7,17
237,4239.4,4239.0,4239.7,0.702,0.739,0.671,0.702,0.67,0.684,Fe,1,5750.0,4.5,0.0,20000,17,37
238,4239.8,4239.5,4240.2,0.824,0.384,0.349,0.824,0.824,0.824,Fe,1,5750.0,4.5,0.0,20000,7,15
239,4240.7,4240.4,4241.0,0.697,0.815,0.683,0.424,0.697,0.499,Fe,1,5750.0,4.5,0.0,20000,24,52
240,4241.1,4240.8,4241.4,0.813,0.801,0.772,0.813,0.647,0.735,Fe,1,5750.0,4.5,0.0,20000,22,49
241,4242.6,4242.3,4242.9,0.672,0.648,0.499,0.222,0.672,0.428,Fe,1,5750.0,4.5,0.0,20000,12,27
242,4243.8,4243.5,4244.1,0.65,0.776,0.73,0.65,0.522,0.595,Fe,1,5750.0,4.5,0.0,20000,20,43
243,4245.3,4244.9,4245.6,0.943,0.423,0.4,0.693,0.943,0.812,Fe,1,5750.0,4.5,0.0,20000,7,16
244,4246.1,4245.8,4246.4,0.886,0.578,0.558,0.878,0.886,0.881,Fe,1,5750.0,4.5,0.0,20000,10,23
245,4247.4,4247.1,4247.7,0.927,0.368,0.316,0.927,0.622,0.762,Fe,1,5750.0,4.5,0.0,20000,7,15
246,4250.1,4249.8,4250.4,0.989,0.263,0.26,0.931,0.989,0.96,Fe,1,5750.0,4.5,0.0,20000,6,13
247,4250.8,4250.5,4251.1,0.991,0.192,0.191,0.978,0.991,0.985,Fe,1,5750.0,4.5,0.0,20000,5,12
248,4256.3,4256.0,4256.6,0.647,0.72,0.599,0.524,0.647,0.557,Fe,1,5750.0,4.5,0.0,20000,16,34
249,4256.8,4256.5,4257.0,0.796,0.862,0.842,0.689,0.796,0.734,Fe,1,5750.0,4.5,0.0,20000,32,70
250,4259.3,4259.0,4259.7,0.629,0.845,0.693,0.389,0.629,0.472,Fe,1,5750.0,4.5,0.0,20000,29,62
251,4260.1,4259.8,4260.5,0.995,0.254,0.248,0.926,0.995,0.963,Fe,1,5750.0,4.5,0.0,20000,6,13
252,4260.5,4260.2,4260.8,0.995,0.174,0.174,0.995,0.99,0.993,Fe,1,5750.0,4.5,0.0,20000,5,11
253,4267.0,4266.6,4267.3,0.678,0.689,0.601,0.377,0.678,0.489,Fe,1,5750.0,4.5,0.0,20000,14,31
254,4268.7,4268.4,4269.1,0.714,0.682,0.617,0.706,0.714,0.709,Fe,1,5750.0,4.5,0.0,20000,14,30
255,4271.2,4270.8,4271.5,0.947,0.23,0.211,0.947,0.936,0.941,Fe,1,5750.0,4.5,0.0,20000,5,12
256,4271.8,4271.4,4272.1,0.994,0.144,0.143,0.97,0.994,0.982,Fe,1,5750.0,4.5,0.0,20000,5,11
259,4288.1,4287.8,4288.5,0.667,0.701,0.544,0.496,0.667,0.539,Fe,1,5750.0,4.5,0.0,20000,15,32
260,4290.4,4290.1,4290.7,0.797,0.598,0.476,0.447,0.797,0.558,Fe,1,5750.0,4.5,0.0,20000,11,24
261,4290.9,4290.5,4291.2,0.611,0.744,0.458,0.611,0.164,0.276,Fe,1,5750.0,4.5,0.0,20000,17,37
262,4291.5,4291.1,4291.8,0.747,0.632,0.6,0.359,0.747,0.486,Fe,1,5750.0,4.5,0.0,20000,12,26
263,4292.3,4292.0,4292.6,0.752,0.62,0.482,0.509,0.752,0.564,Fe,1,5750.0,4.5,0.0,20000,11,25
264,4294.1,4293.8,4294.4,0.975,0.259,0.247,0.975,0.896,0.936,Fe,1,5750.0,4.5,0.0,20000,6,13
265,4299.2,4298.9,4299.6,0.808,0.253,0.197,0.662,0.808,0.731,Fe,1,5750.0,4.5,0.0,20000,6,12
266,4307.9,4307.6,4308.2,0.927,0.146,0.127,0.899,0.927,0.913,Fe,1,5750.0,4.5,0.0,20000,5,11
267,4309.4,4309.1,4309.7,0.637,0.417,0.317,0.539,0.637,0.588,Fe,1,5750.0,4.5,0.0,20000,7,16
269,4320.5,4320.2,4320.8,0.65,0.827,0.747,0.65,0.218,0.346,Fe,1,5750.0,4.5,0.0,20000,26,55
270,4325.8,4325.4,4326.1,0.976,0.14,0.137,0.976,0.974,0.975,Fe,1,5750.0,4.5,0.0,20000,5,11
271,4326.8,4326.4,4327.1,0.837,0.642,0.555,0.837,0.65,0.728,Fe,1,5750.0,4.5,0.0,20000,12,27
272,4327.1,4326.8,4327.4,0.719,0.613,0.509,0.652,0.719,0.676,Fe,1,5750.0,4.5,0.0,20000,11,24
273,4327.9,4327.6,4328.2,0.717,0.689,0.574,0.717,0.467,0.583,Fe,1,5750.0,4.5,0.0,20000,14,31
274,4337.0,4336.7,4337.4,0.777,0.411,0.365,0.755,0.777,0.766,Fe,1,5750.0,4.5,0.0,20000,7,16
275,4348.9,4348.7,4349.2,0.658,0.771,0.717,0.602,0.658,0.629,Fe,1,5750.0,4.5,0.0,20000,19,42
276,4128.7,4128.5,4129.0,0.668,0.809,0.764,0.668,0.587,0.625,Fe,2,5750.0,4.5,0.0,20000,23,51