,ll,Bluewidth,Redwidth,Maxratio,fmin,fmin_sp,Blueratio,Redratio,Fullratio,Element,ionisation,Teff,logg,FeH,Resolution,min_snr_res,min_snr_AA
84,5330.0,5329.6,5330.3,0.945,0.77,0.745,0.482,0.945,0.631,Fe,1,5750.0,4.5,0.0,20000,19,37
85,5332.9,5332.5,5333.2,0.982,0.631,0.627,0.923,0.982,0.947,Fe,1,5750.0,4.5,0.0,20000,12,23
97,5379.6,5379.3,5379.8,0.962,0.762,0.758,0.962,0.943,0.953,Fe,1,5750.0,4.5,0.0,20000,18,36
98,5382.5,5382.2,5382.9,0.98,0.756,0.754,0.98,0.966,0.973,Fe,1,5750.0,4.5,0.0,20000,18,35
101,5387.5,5387.3,5387.7,0.73,0.916,0.866,0.73,0.466,0.569,Fe,1,5750.0,4.5,0.0,20000,53,103
102,5389.5,5389.1,5389.8,0.959,0.671,0.669,0.896,0.959,0.927,Fe,1,5750.0,4.5,0.0,20000,13,26
104,5393.2,5392.8,5393.6,0.984,0.513,0.51,0.984,0.933,0.958,Fe,1,5750.0,4.5,0.0,20000,9,17
109,5403.4,5403.1,5403.8,0.967,0.926,0.924,0.967,0.946,0.95,Fe,1,5750.0,4.5,0.0,20000,60,116
112,5406.3,5405.9,5406.7,0.929,0.869,0.856,0.929,0.872,0.91,Fe,1,5750.0,4.5,0.0,20000,34,66
113,5406.8,5406.4,5407.0,0.908,0.876,0.87,0.88,0.908,0.889,Fe,1,5750.0,4.5,0.0,20000,36,69
119,5421.8,5421.7,5422.2,0.905,0.917,0.91,0.905,0.852,0.872,Fe,1,5750.0,4.5,0.0,20000,54,104
121,5428.7,5428.5,5429.1,0.846,0.929,0.915,0.846,0.615,0.684,Fe,1,5750.0,4.5,0.0,20000,63,121
124,5433.6,5433.5,5433.9,0.871,0.935,0.924,0.748,0.871,0.811,Fe,1,5750.0,4.5,0.0,20000,69,132
128,5436.6,5436.2,5437.0,0.962,0.762,0.753,0.962,0.814,0.902,Fe,1,5750.0,4.5,0.0,20000,18,36
129,5437.1,5436.7,5437.3,0.871,0.888,0.867,0.735,0.871,0.78,Fe,1,5750.0,4.5,0.0,20000,40,77
133,5448.3,5448.1,5448.5,0.897,0.911,0.903,0.897,0.831,0.863,Fe,1,5750.0,4.5,0.0,20000,50,96
135,5461.5,5461.4,5461.7,0.902,0.921,0.915,0.898,0.902,0.9,Fe,1,5750.0,4.5,0.0,20000,56,109
138,5464.3,5464.0,5464.5,0.966,0.811,0.807,0.881,0.966,0.921,Fe,1,5750.0,4.5,0.0,20000,23,45
141,5469.3,5469.1,5469.4,0.71,0.932,0.901,0.71,0.589,0.646,Fe,1,5750.0,4.5,0.0,20000,66,126
142,5470.1,5469.9,5470.4,0.911,0.851,0.842,0.911,0.87,0.885,Fe,1,5750.0,4.5,0.0,20000,30,57
154,5493.3,5493.1,5493.7,0.921,0.705,0.682,0.774,0.921,0.873,Fe,1,5750.0,4.5,0.0,20000,15,29
157,5498.4,5498.2,5498.6,0.853,0.938,0.931,0.846,0.853,0.85,Fe,1,5750.0,4.5,0.0,20000,72,138
159,5505.7,5505.5,5506.1,0.949,0.699,0.68,0.949,0.86,0.887,Fe,1,5750.0,4.5,0.0,20000,14,28
161,5512.3,5512.0,5512.6,0.857,0.76,0.733,0.857,0.556,0.63,Fe,1,5750.0,4.5,0.0,20000,18,35
162,5521.3,5520.9,5521.5,0.964,0.743,0.732,0.964,0.747,0.863,Fe,1,5750.0,4.5,0.0,20000,17,33
164,5524.0,5523.8,5524.3,0.885,0.865,0.852,0.787,0.885,0.838,Fe,1,5750.0,4.5,0.0,20000,33,63
165,5525.5,5525.2,5526.0,0.928,0.721,0.714,0.909,0.928,0.918,Fe,1,5750.0,4.5,0.0,20000,16,30
167,5532.1,5531.8,5532.2,0.671,0.938,0.913,0.671,0.448,0.614,Fe,1,5750.0,4.5,0.0,20000,72,138
168,5532.7,5532.5,5533.1,0.959,0.754,0.751,0.959,0.914,0.929,Fe,1,5750.0,4.5,0.0,20000,18,34
169,5534.7,5534.5,5534.8,0.765,0.92,0.871,0.765,0.262,0.402,Fe,1,5750.0,4.5,0.0,20000,56,106
170,5535.4,5535.2,5535.7,0.854,0.783,0.759,0.828,0.854,0.841,Fe,1,5750.0,4.5,0.0,20000,20,39
172,5539.3,5539.1,5539.5,0.786,0.922,0.905,0.786,0.776,0.781,Fe,1,5750.0,4.5,0.0,20000,57,109
173,5543.1,5542.9,5543.4,0.982,0.747,0.742,0.982,0.924,0.953,Fe,1,5750.0,4.5,0.0,20000,17,33
175,5546.5,5546.3,5546.9,0.954,0.812,0.807,0.954,0.933,0.942,Fe,1,5750.0,4.5,0.0,20000,23,45
177,5549.6,5549.3,5550.0,0.941,0.823,0.817,0.941,0.93,0.934,Fe,1,5750.0,4.5,0.0,20000,25,48
180,5557.9,5557.7,5558.2,0.96,0.733,0.725,0.924,0.96,0.948,Fe,1,5750.0,4.5,0.0,20000,16,31
182,5561.2,5561.0,5561.5,0.963,0.853,0.85,0.963,0.956,0.959,Fe,1,5750.0,4.5,0.0,20000,30,58
183,5562.1,5561.7,5562.5,0.938,0.662,0.657,0.938,0.909,0.923,Fe,1,5750.0,4.5,0.0,20000,13,25
184,5562.7,5562.3,5563.1,0.945,0.708,0.699,0.896,0.945,0.918,Fe,1,5750.0,4.5,0.0,20000,15,29
188,5568.8,5568.6,5569.2,0.937,0.943,0.941,0.937,0.757,0.817,Fe,1,5750.0,4.5,0.0,20000,78,149
192,5584.3,5583.8,5584.7,0.798,0.766,0.754,0.608,0.798,0.687,Fe,1,5750.0,4.5,0.0,20000,19,36
194,5585.7,5585.5,5586.1,0.95,0.914,0.913,0.907,0.95,0.935,Fe,1,5750.0,4.5,0.0,20000,52,99
195,5586.3,5585.8,5586.7,0.997,0.827,0.825,0.96,0.997,0.989,Fe,1,5750.0,4.5,0.0,20000,26,49
198,5592.6,5592.2,5592.8,0.912,0.93,0.925,0.324,0.912,0.404,Fe,1,5750.0,4.5,0.0,20000,64,121
201,5600.2,5599.9,5600.5,0.954,0.78,0.749,0.614,0.954,0.703,Fe,1,5750.0,4.5,0.0,20000,20,38
203,5609.0,5608.7,5609.2,0.96,0.835,0.828,0.96,0.926,0.943,Fe,1,5750.0,4.5,0.0,20000,27,51
204,5611.7,5611.5,5611.9,0.958,0.909,0.906,0.958,0.946,0.952,Fe,1,5750.0,4.5,0.0,20000,49,93
206,5617.2,5616.9,5617.4,0.964,0.882,0.878,0.964,0.947,0.956,Fe,1,5750.0,4.5,0.0,20000,38,71