,ll,Bluewidth,Redwidth,Maxratio,fmin,fmin_sp,Blueratio,Redratio,Fullratio,Element,ionisation,Teff,logg,FeH,Resolution,min_snr_res,min_snr_AA
218,4220.0,4219.7,4220.4,0.898,0.773,0.753,0.898,0.886,0.89,Fe,1,5750.0,4.5,0.0,20000,19,43
219,4220.3,4220.0,4220.7,0.886,0.664,0.629,0.886,0.731,0.82,Fe,1,5750.0,4.5,0.0,20000,13,29
257,4278.2,4277.9,4278.6,0.805,0.741,0.647,0.547,0.805,0.669,Fe,1,5750.0,4.5,0.0,20000,17,37
258,4282.4,4282.1,4282.7,0.835,0.426,0.41,0.835,0.664,0.74,Fe,1,5750.0,4.5,0.0,20000,7,16
268,4315.1,4314.8,4315.4,0.855,0.474,0.341,0.426,0.855,0.57,Fe,1,5750.0,4.5,0.0,20000,8,18
0,5162.3,5161.9,5162.7,0.841,0.546,0.516,0.841,0.764,0.8,Fe,1,5750.0,4.5,0.0,20000,9,19
1,5165.4,5165.0,5165.8,0.877,0.538,0.514,0.565,0.877,0.686,Fe,1,5750.0,4.5,0.0,20000,9,19
2,5166.3,5165.9,5166.7,0.627,0.615,0.528,0.627,0.573,0.599,Fe,1,5750.0,4.5,0.0,20000,11,22
3,5167.5,5167.1,5167.9,0.789,0.306,0.214,0.542,0.789,0.646,Fe,1,5750.0,4.5,0.0,20000,6,12
4,5171.6,5171.2,5172.0,0.732,0.419,0.37,0.732,0.592,0.654,Fe,1,5750.0,4.5,0.0,20000,7,15
5,5178.8,5178.6,5179.0,0.6,0.906,0.873,0.6,0.578,0.589,Fe,1,5750.0,4.5,0.0,20000,47,94
6,5180.1,5179.8,5180.3,0.709,0.82,0.781,0.709,0.648,0.677,Fe,1,5750.0,4.5,0.0,20000,24,49
7,5187.9,5187.7,5188.2,0.759,0.812,0.768,0.65,0.759,0.701,Fe,1,5750.0,4.5,0.0,20000,23,46
8,5191.5,5191.1,5191.8,0.968,0.431,0.42,0.968,0.922,0.944,Fe,1,5750.0,4.5,0.0,20000,7,15
9,5192.3,5192.0,5192.7,0.858,0.395,0.376,0.858,0.858,0.858,Fe,1,5750.0,4.5,0.0,20000,7,14
10,5194.9,5194.6,5195.3,0.967,0.508,0.504,0.949,0.967,0.959,Fe,1,5750.0,4.5,0.0,20000,9,17
11,5195.5,5195.1,5195.9,0.963,0.555,0.548,0.957,0.963,0.96,Fe,1,5750.0,4.5,0.0,20000,10,19
12,5196.1,5195.7,5196.4,0.916,0.646,0.633,0.916,0.687,0.797,Fe,1,5750.0,4.5,0.0,20000,12,24
13,5197.9,5197.5,5198.2,0.902,0.858,0.85,0.329,0.902,0.455,Fe,1,5750.0,4.5,0.0,20000,31,62
14,5198.7,5198.4,5199.0,0.965,0.632,0.624,0.866,0.965,0.914,Fe,1,5750.0,4.5,0.0,20000,12,23
15,5202.3,5201.9,5202.7,0.986,0.468,0.467,0.986,0.965,0.977,Fe,1,5750.0,4.5,0.0,20000,8,16
16,5206.8,5206.5,5207.0,0.698,0.921,0.895,0.468,0.698,0.541,Fe,1,5750.0,4.5,0.0,20000,56,111
17,5208.6,5208.2,5209.0,0.709,0.549,0.39,0.307,0.709,0.429,Fe,1,5750.0,4.5,0.0,20000,9,19
18,5215.2,5214.8,5215.6,0.939,0.546,0.52,0.939,0.87,0.903,Fe,1,5750.0,4.5,0.0,20000,9,19
19,5216.3,5215.9,5216.7,0.899,0.532,0.512,0.899,0.812,0.853,Fe,1,5750.0,4.5,0.0,20000,9,18
20,5217.4,5217.0,5217.8,0.987,0.582,0.581,0.961,0.987,0.975,Fe,1,5750.0,4.5,0.0,20000,10,21
21,5217.9,5217.5,5218.2,0.972,0.772,0.76,0.972,0.528,0.739,Fe,1,5750.0,4.5,0.0,20000,19,38
22,5221.0,5220.8,5221.4,0.918,0.87,0.846,0.606,0.918,0.761,Fe,1,5750.0,4.5,0.0,20000,34,67
23,5221.4,5221.0,5221.6,0.92,0.941,0.937,0.92,0.59,0.809,Fe,1,5750.0,4.5,0.0,20000,76,149
24,5222.4,5222.2,5222.6,0.866,0.914,0.896,0.866,0.543,0.667,Fe,1,5750.0,4.5,0.0,20000,52,102
25,5223.2,5222.9,5223.4,0.959,0.795,0.792,0.851,0.959,0.902,Fe,1,5750.0,4.5,0.0,20000,21,42
26,5225.5,5225.2,5225.9,0.944,0.711,0.708,0.944,0.729,0.819,Fe,1,5750.0,4.5,0.0,20000,15,30
27,5226.9,5226.5,5227.3,0.993,0.377,0.374,0.692,0.993,0.871,Fe,1,5750.0,4.5,0.0,20000,7,14
28,5227.2,5226.8,5227.6,0.991,0.294,0.29,0.991,0.988,0.99,Fe,1,5750.0,4.5,0.0,20000,6,12
29,5228.4,5228.0,5228.7,0.975,0.773,0.77,0.95,0.975,0.961,Fe,1,5750.0,4.5,0.0,20000,19,38
30,5229.8,5229.5,5230.2,0.994,0.506,0.506,0.994,0.833,0.903,Fe,1,5750.0,4.5,0.0,20000,9,17
31,5232.9,5232.5,5233.3,0.999,0.318,0.318,0.983,0.999,0.991,Fe,1,5750.0,4.5,0.0,20000,6,12
32,5235.4,5235.1,5235.7,0.618,0.718,0.633,0.618,0.577,0.597,Fe,1,5750.0,4.5,0.0,20000,15,31
33,5236.2,5236.0,5236.5,0.95,0.831,0.823,0.95,0.93,0.939,Fe,1,5750.0,4.5,0.0,20000,26,52
34,5241.9,5241.7,5242.1,0.976,0.883,0.882,0.967,0.976,0.972,Fe,1,5750.0,4.5,0.0,20000,38,75
35,5242.5,5242.1,5242.8,0.991,0.672,0.67,0.981,0.991,0.986,Fe,1,5750.0,4.5,0.0,20000,13,26
36,5243.8,5243.5,5244.0,0.953,0.764,0.756,0.836,0.953,0.89,Fe,1,5750.0,4.5,0.0,20000,19,37
37,5245.6,5245.3,5246.0,0.991,0.64,0.638,0.991,0.975,0.982,Fe,1,5750.0,4.5,0.0,20000,12,24
38,5247.0,5246.8,5247.3,0.815,0.736,0.73,0.815,0.802,0.808,Fe,1,5750.0,4.5,0.0,20000,17,33
39,5249.1,5248.9,5249.3,0.949,0.86,0.856,0.949,0.846,0.894,Fe,1,5750.0,4.5,0.0,20000,32,62
40,5250.2,5250.0,5250.6,0.995,0.737,0.736,0.973,0.995,0.988,Fe,1,5750.0,4.5,0.0,20000,17,33
41,5250.6,5250.3,5251.0,0.994,0.637,0.634,0.994,0.92,0.963,Fe,1,5750.0,4.5,0.0,20000,12,24
42,5253.0,5252.8,5253.4,0.976,0.912,0.908,0.902,0.976,0.961,Fe,1,5750.0,4.5,0.0,20000,51,99
43,5253.5,5253.1,5253.8,0.981,0.689,0.686,0.981,0.936,0.961,Fe,1,5750.0,4.5,0.0,20000,14,28
44,5255.0,5254.7,5255.2,0.63,0.713,0.589,0.63,0.436,0.515,Fe,1,5750.0,4.5,0.0,20000,15,30
45,5255.7,5255.4,5256.0,0.815,0.729,0.7,0.612,0.815,0.726,Fe,1,5750.0,4.5,0.0,20000,16,32
46,5257.7,5257.5,5257.8,0.695,0.936,0.9,0.561,0.695,0.62,Fe,1,5750.0,4.5,0.0,20000,70,137
47,5259.1,5258.8,5259.4,0.981,0.709,0.706,0.981,0.949,0.966,Fe,1,5750.0,4.5,0.0,20000,15,30
48,5262.9,5262.5,5263.3,0.982,0.85,0.844,0.864,0.982,0.947,Fe,1,5750.0,4.5,0.0,20000,29,58
49,5263.3,5262.9,5263.7,0.983,0.545,0.536,0.983,0.893,0.939,Fe,1,5750.0,4.5,0.0,20000,9,19
50,5263.9,5263.5,5264.1,0.838,0.838,0.814,0.838,0.323,0.537,Fe,1,5750.0,4.5,0.0,20000,27,54
51,5265.9,5265.6,5266.3,0.629,0.899,0.787,0.13,0.629,0.317,Fe,1,5750.0,4.5,0.0,20000,44,86
52,5266.6,5266.2,5266.9,0.985,0.389,0.377,0.869,0.985,0.923,Fe,1,5750.0,4.5,0.0,20000,7,14
53,5267.3,5266.9,5267.7,0.948,0.856,0.851,0.911,0.948,0.926,Fe,1,5750.0,4.5,0.0,20000,31,60
54,5269.5,5269.1,5269.9,0.996,0.254,0.254,0.996,0.989,0.993,Fe,1,5750.0,4.5,0.0,20000,6,11
55,5270.4,5270.0,5270.8,0.941,0.365,0.298,0.828,0.941,0.875,Fe,1,5750.0,4.5,0.0,20000,7,13
56,5271.3,5270.9,5271.6,0.916,0.931,0.926,0.916,0.822,0.883,Fe,1,5750.0,4.5,0.0,20000,65,127
57,5272.3,5272.0,5272.5,0.757,0.885,0.868,0.509,0.757,0.609,Fe,1,5750.0,4.5,0.0,20000,39,76
58,5273.2,5272.8,5273.6,0.991,0.506,0.501,0.991,0.947,0.96,Fe,1,5750.0,4.5,0.0,20000,9,17
59,5277.3,5277.0,5277.6,0.966,0.782,0.778,0.95,0.966,0.958,Fe,1,5750.0,4.5,0.0,20000,20,40
60,5280.4,5280.0,5280.6,0.774,0.71,0.682,0.774,0.691,0.739,Fe,1,5750.0,4.5,0.0,20000,15,30
61,5281.8,5281.4,5282.2,0.979,0.495,0.477,0.897,0.979,0.936,Fe,1,5750.0,4.5,0.0,20000,8,17
62,5283.6,5283.2,5284.0,0.881,0.451,0.433,0.841,0.881,0.861,Fe,1,5750.0,4.5,0.0,20000,8,15
63,5284.4,5284.0,5284.8,0.948,0.87,0.858,0.333,0.948,0.547,Fe,1,5750.0,4.5,0.0,20000,34,67
64,5285.1,5284.9,5285.3,0.941,0.9,0.892,0.941,0.826,0.881,Fe,1,5750.0,4.5,0.0,20000,45,87
65,5288.5,5288.2,5288.8,0.962,0.744,0.741,0.962,0.924,0.944,Fe,1,5750.0,4.5,0.0,20000,17,34
66,5292.6,5292.3,5293.0,0.956,0.805,0.802,0.956,0.942,0.948,Fe,1,5750.0,4.5,0.0,20000,23,44
67,5294.0,5293.7,5294.3,0.953,0.812,0.806,0.952,0.953,0.953,Fe,1,5750.0,4.5,0.0,20000,23,46
68,5295.3,5295.1,5295.5,0.971,0.887,0.885,0.971,0.947,0.959,Fe,1,5750.0,4.5,0.0,20000,39,77
69,5298.8,5298.5,5299.0,0.93,0.812,0.799,0.473,0.93,0.642,Fe,1,5750.0,4.5,0.0,20000,23,46
70,5300.4,5300.2,5300.6,0.907,0.919,0.912,0.907,0.621,0.739,Fe,1,5750.0,4.5,0.0,20000,55,107
71,5302.3,5301.9,5302.7,0.969,0.523,0.518,0.956,0.969,0.962,Fe,1,5750.0,4.5,0.0,20000,9,18
72,5307.4,5307.1,5307.6,0.94,0.665,0.636,0.804,0.94,0.866,Fe,1,5750.0,4.5,0.0,20000,13,26
73,5308.7,5308.3,5308.9,0.895,0.921,0.913,0.455,0.895,0.551,Fe,1,5750.0,4.5,0.0,20000,56,110
74,5315.1,5314.9,5315.5,0.933,0.879,0.873,0.933,0.932,0.933,Fe,1,5750.0,4.5,0.0,20000,37,72
75,5319.2,5318.9,5319.4,0.979,0.927,0.925,0.854,0.979,0.892,Fe,1,5750.0,4.5,0.0,20000,61,119
76,5320.0,5319.8,5320.2,0.932,0.904,0.895,0.622,0.932,0.738,Fe,1,5750.0,4.5,0.0,20000,46,90
77,5321.1,5320.9,5321.4,0.94,0.798,0.791,0.911,0.94,0.925,Fe,1,5750.0,4.5,0.0,20000,22,43
78,5322.0,5321.6,5322.3,0.989,0.728,0.727,0.928,0.989,0.95,Fe,1,5750.0,4.5,0.0,20000,16,32
79,5324.2,5323.8,5324.6,0.996,0.373,0.371,0.985,0.996,0.991,Fe,1,5750.0,4.5,0.0,20000,7,13
80,5326.1,5325.9,5326.5,0.864,0.817,0.798,0.641,0.864,0.754,Fe,1,5750.0,4.5,0.0,20000,24,47
81,5326.8,5326.4,5327.2,0.962,0.824,0.821,0.912,0.962,0.938,Fe,1,5750.0,4.5,0.0,20000,25,49
82,5328.0,5327.6,5328.4,0.993,0.281,0.275,0.993,0.821,0.892,Fe,1,5750.0,4.5,0.0,20000,6,12
83,5328.5,5328.1,5328.9,0.873,0.436,0.388,0.793,0.873,0.819,Fe,1,5750.0,4.5,0.0,20000,7,15
208,5619.2,5619.1,5619.6,0.926,0.935,0.931,0.926,0.887,0.895,Fe,1,5750.0,4.5,0.0,20000,69,130
209,5619.6,5619.2,5620.0,0.899,0.882,0.866,0.899,0.804,0.853,Fe,1,5750.0,4.5,0.0,20000,38,71
210,5620.5,5620.1,5620.7,0.971,0.806,0.802,0.971,0.929,0.955,Fe,1,5750.0,4.5,0.0,20000,23,43
211,5624.0,5623.8,5624.4,0.968,0.837,0.831,0.968,0.902,0.919,Fe,1,5750.0,4.5,0.0,20000,27,52
212,5624.5,5624.1,5625.0,0.932,0.555,0.548,0.932,0.921,0.927,Fe,1,5750.0,4.5,0.0,20000,10,19
213,5631.7,5631.5,5631.9,0.944,0.881,0.872,0.944,0.835,0.886,Fe,1,5750.0,4.5,0.0,20000,37,71
214,5633.9,5633.7,5634.2,0.933,0.743,0.736,0.91,0.933,0.922,Fe,1,5750.0,4.5,0.0,20000,17,32
215,5635.8,5635.6,5636.0,0.953,0.893,0.89,0.953,0.885,0.917,Fe,1,5750.0,4.5,0.0,20000,42,79
216,5636.7,5636.5,5637.1,0.936,0.912,0.91,0.936,0.644,0.716,Fe,1,5750.0,4.5,0.0,20000,51,96
217,5637.1,5636.7,5637.3,0.662,0.928,0.84,0.662,0.419,0.571,Fe,1,5750.0,4.5,0.0,20000,62,117
218,5638.3,5638.0,5638.6,0.965,0.697,0.686,0.922,0.965,0.943,Fe,1,5750.0,4.5,0.0,20000,14,27
219,5640.3,5640.1,5640.7,0.991,0.861,0.86,0.979,0.991,0.988,Fe,1,5750.0,4.5,0.0,20000,32,60
220,5641.4,5641.2,5641.7,0.902,0.755,0.754,0.901,0.902,0.901,Fe,1,5750.0,4.5,0.0,20000,18,34
221,5644.0,5643.7,5644.4,0.904,0.69,0.635,0.904,0.585,0.735,Fe,1,5750.0,4.5,0.0,20000,14,27
222,5645.8,5645.6,5646.1,0.902,0.809,0.792,0.532,0.902,0.669,Fe,1,5750.0,4.5,0.0,20000,23,44
223,5649.6,5649.5,5650.1,0.608,0.943,0.853,0.436,0.608,0.572,Fe,1,5750.0,4.5,0.0,20000,78,148
224,5650.0,5649.6,5650.2,0.973,0.867,0.863,0.525,0.973,0.635,Fe,1,5750.0,4.5,0.0,20000,33,63
225,5650.7,5650.5,5650.9,0.953,0.873,0.863,0.766,0.953,0.849,Fe,1,5750.0,4.5,0.0,20000,35,66
226,5651.5,5651.3,5651.6,0.982,0.938,0.937,0.981,0.982,0.982,Fe,1,5750.0,4.5,0.0,20000,72,136
227,5652.3,5652.1,5652.5,0.985,0.904,0.903,0.981,0.985,0.983,Fe,1,5750.0,4.5,0.0,20000,46,88
228,5653.9,5653.7,5654.1,0.981,0.873,0.872,0.981,0.974,0.977,Fe,1,5750.0,4.5,0.0,20000,35,66
229,5655.2,5654.9,5655.6,0.995,0.802,0.797,0.731,0.995,0.919,Fe,1,5750.0,4.5,0.0,20000,22,42
230,5655.5,5655.1,5655.8,0.989,0.719,0.718,0.977,0.989,0.981,Fe,1,5750.0,4.5,0.0,20000,16,30
231,5658.8,5658.4,5659.2,0.952,0.477,0.476,0.944,0.952,0.946,Fe,1,5750.0,4.5,0.0,20000,8,16
232,5660.8,5660.6,5661.2,0.904,0.938,0.919,0.439,0.904,0.733,Fe,1,5750.0,4.5,0.0,20000,72,136
233,5661.3,5660.9,5661.6,0.966,0.89,0.887,0.966,0.955,0.963,Fe,1,5750.0,4.5,0.0,20000,40,76
234,5662.5,5662.1,5662.9,0.852,0.643,0.642,0.731,0.852,0.796,Fe,1,5750.0,4.5,0.0,20000,12,23
235,5662.9,5662.5,5663.2,0.853,0.83,0.761,0.853,0.756,0.83,Fe,1,5750.0,4.5,0.0,20000,26,49
236,5667.7,5667.3,5667.9,0.945,0.727,0.721,0.939,0.945,0.941,Fe,1,5750.0,4.5,0.0,20000,16,30
237,5671.8,5671.6,5672.0,0.724,0.901,0.865,0.697,0.724,0.71,Fe,1,5750.0,4.5,0.0,20000,45,85
238,5679.0,5678.8,5679.3,0.995,0.776,0.775,0.995,0.995,0.995,Fe,1,5750.0,4.5,0.0,20000,20,37
239,5686.5,5686.1,5686.9,0.991,0.689,0.688,0.991,0.875,0.933,Fe,1,5750.0,4.5,0.0,20000,14,27
240,5691.5,5691.3,5691.7,0.969,0.842,0.837,0.949,0.969,0.959,Fe,1,5750.0,4.5,0.0,20000,28,53
241,5696.1,5695.9,5696.3,0.967,0.925,0.923,0.945,0.967,0.957,Fe,1,5750.0,4.5,0.0,20000,60,112
242,5698.0,5697.8,5698.4,0.906,0.922,0.904,0.906,0.368,0.44,Fe,1,5750.0,4.5,0.0,20000,57,108
243,5701.5,5701.2,5701.9,0.966,0.677,0.672,0.88,0.966,0.92,Fe,1,5750.0,4.5,0.0,20000,13,26
244,5702.3,5702.2,5702.6,0.635,0.908,0.852,0.44,0.635,0.547,Fe,1,5750.0,4.5,0.0,20000,48,91
245,5704.7,5704.6,5704.9,0.984,0.942,0.941,0.984,0.971,0.977,Fe,1,5750.0,4.5,0.0,20000,77,145
246,5705.5,5705.2,5705.9,0.988,0.823,0.822,0.985,0.988,0.987,Fe,1,5750.0,4.5,0.0,20000,25,47
247,5706.0,5705.6,5706.3,0.986,0.706,0.7,0.986,0.911,0.95,Fe,1,5750.0,4.5,0.0,20000,15,28
248,5707.0,5706.8,5707.3,0.797,0.879,0.828,0.562,0.797,0.67,Fe,1,5750.0,4.5,0.0,20000,37,69
249,5708.1,5707.9,5708.3,0.901,0.868,0.844,0.901,0.426,0.578,Fe,1,5750.0,4.5,0.0,20000,34,63
250,5709.4,5709.0,5709.8,0.91,0.597,0.53,0.91,0.513,0.655,Fe,1,5750.0,4.5,0.0,20000,11,20
251,5711.8,5711.6,5712.3,0.735,0.814,0.668,0.592,0.735,0.696,Fe,1,5750.0,4.5,0.0,20000,24,45
252,5712.1,5711.7,5712.4,0.95,0.776,0.759,0.643,0.95,0.71,Fe,1,5750.0,4.5,0.0,20000,20,37
253,5715.1,5714.8,5715.4,0.805,0.759,0.697,0.742,0.805,0.772,Fe,1,5750.0,4.5,0.0,20000,18,34
254,5717.8,5717.6,5718.1,0.995,0.757,0.756,0.995,0.972,0.983,Fe,1,5750.0,4.5,0.0,20000,18,34
255,5169.0,5168.6,5169.4,0.861,0.404,0.311,0.562,0.861,0.68,Fe,2,5750.0,4.5,0.0,20000,7,14
256,5197.6,5197.3,5197.9,0.864,0.687,0.679,0.864,0.788,0.824,Fe,2,5750.0,4.5,0.0,20000,14,28
257,5234.6,5234.3,5234.9,0.943,0.681,0.674,0.919,0.943,0.931,Fe,2,5750.0,4.5,0.0,20000,14,27
258,5256.9,5256.8,5257.1,0.845,0.93,0.917,0.845,0.803,0.823,Fe,2,5750.0,4.5,0.0,20000,64,125
259,5264.8,5264.6,5265.0,0.868,0.823,0.812,0.868,0.734,0.796,Fe,2,5750.0,4.5,0.0,20000,25,49
260,5284.1,5283.9,5284.3,0.687,0.783,0.755,0.605,0.687,0.643,Fe,2,5750.0,4.5,0.0,20000,20,40
261,5316.6,5316.2,5317.0,0.987,0.544,0.541,0.987,0.938,0.955,Fe,2,5750.0,4.5,0.0,20000,9,19
262,5325.6,5325.3,5325.8,0.846,0.827,0.813,0.724,0.846,0.78,Fe,2,5750.0,4.5,0.0,20000,26,50
0,6102.2,6101.9,6102.5,0.965,0.748,0.742,0.965,0.785,0.867,Fe,1,5750.0,4.5,0.0,20000,17,32
1,6103.2,6102.9,6103.6,0.945,0.689,0.682,0.693,0.945,0.831,Fe,1,5750.0,4.5,0.0,20000,14,26
2,6107.3,6107.1,6107.6,0.966,0.825,0.822,0.956,0.966,0.961,Fe,1,5750.0,4.5,0.0,20000,25,46
3,6127.9,6127.7,6128.2,0.982,0.807,0.806,0.982,0.972,0.977,Fe,1,5750.0,4.5,0.0,20000,23,42
4,6129.6,6129.3,6129.9,0.952,0.764,0.755,0.952,0.903,0.927,Fe,1,5750.0,4.5,0.0,20000,19,34
5,6136.6,6136.2,6137.1,0.996,0.533,0.532,0.994,0.996,0.995,Fe,1,5750.0,4.5,0.0,20000,9,17
6,6137.0,6136.5,6137.5,0.997,0.726,0.724,0.997,0.991,0.995,Fe,1,5750.0,4.5,0.0,20000,16,29
7,6137.7,6137.2,6138.2,0.997,0.53,0.529,0.997,0.992,0.995,Fe,1,5750.0,4.5,0.0,20000,9,17
8,6141.7,6141.4,6142.0,0.688,0.716,0.598,0.618,0.688,0.651,Fe,1,5750.0,4.5,0.0,20000,15,28
9,6145.4,6145.2,6145.6,0.926,0.91,0.907,0.839,0.926,0.881,Fe,1,5750.0,4.5,0.0,20000,50,90
10,6147.8,6147.6,6148.1,0.797,0.839,0.766,0.477,0.797,0.597,Fe,1,5750.0,4.5,0.0,20000,27,50
11,6151.6,6151.4,6151.9,0.987,0.798,0.796,0.987,0.976,0.982,Fe,1,5750.0,4.5,0.0,20000,22,40
12,6157.7,6157.4,6158.0,0.961,0.745,0.74,0.952,0.961,0.956,Fe,1,5750.0,4.5,0.0,20000,17,31
13,6159.4,6159.1,6159.7,0.967,0.729,0.724,0.965,0.967,0.966,Fe,1,5750.0,4.5,0.0,20000,16,29
14,6164.5,6164.4,6164.7,0.882,0.943,0.937,0.882,0.869,0.875,Fe,1,5750.0,4.5,0.0,20000,78,142
15,6165.4,6165.1,6165.6,0.96,0.821,0.817,0.95,0.96,0.955,Fe,1,5750.0,4.5,0.0,20000,25,45
16,6170.5,6170.2,6171.0,0.883,0.738,0.71,0.883,0.857,0.869,Fe,1,5750.0,4.5,0.0,20000,17,30
17,6173.3,6173.1,6173.6,0.97,0.737,0.734,0.97,0.957,0.964,Fe,1,5750.0,4.5,0.0,20000,17,30
18,6180.2,6179.7,6180.5,0.942,0.772,0.764,0.851,0.942,0.891,Fe,1,5750.0,4.5,0.0,20000,19,35
19,6183.6,6183.4,6183.7,0.924,0.924,0.921,0.924,0.908,0.916,Fe,1,5750.0,4.5,0.0,20000,59,106
20,6188.0,6187.7,6188.2,0.989,0.804,0.802,0.967,0.989,0.978,Fe,1,5750.0,4.5,0.0,20000,22,41
21,6191.6,6191.1,6192.0,0.96,0.532,0.529,0.596,0.96,0.735,Fe,1,5750.0,4.5,0.0,20000,9,17
22,6200.3,6200.0,6200.6,0.991,0.727,0.726,0.991,0.99,0.99,Fe,1,5750.0,4.5,0.0,20000,16,29
23,6208.2,6208.0,6208.4,0.934,0.916,0.91,0.934,0.777,0.848,Fe,1,5750.0,4.5,0.0,20000,53,96
24,6213.4,6213.1,6213.7,0.989,0.675,0.675,0.989,0.987,0.988,Fe,1,5750.0,4.5,0.0,20000,13,24
25,6215.1,6214.9,6215.6,0.866,0.783,0.741,0.852,0.866,0.862,Fe,1,5750.0,4.5,0.0,20000,20,37
26,6215.4,6215.0,6215.7,0.963,0.806,0.791,0.839,0.963,0.866,Fe,1,5750.0,4.5,0.0,20000,23,41
27,6216.4,6216.2,6216.6,0.672,0.905,0.86,0.672,0.672,0.672,Fe,1,5750.0,4.5,0.0,20000,47,84
28,6219.3,6219.0,6219.6,0.988,0.66,0.658,0.988,0.973,0.98,Fe,1,5750.0,4.5,0.0,20000,13,23
29,6220.8,6220.6,6221.0,0.968,0.875,0.872,0.852,0.968,0.907,Fe,1,5750.0,4.5,0.0,20000,36,64
30,6226.7,6226.5,6226.9,0.985,0.886,0.883,0.957,0.985,0.971,Fe,1,5750.0,4.5,0.0,20000,39,70
31,6229.2,6229.0,6229.5,0.958,0.828,0.818,0.958,0.879,0.917,Fe,1,5750.0,4.5,0.0,20000,26,46
32,6230.7,6230.3,6231.2,0.968,0.528,0.516,0.968,0.877,0.92,Fe,1,5750.0,4.5,0.0,20000,9,17
33,6232.6,6232.3,6233.0,0.988,0.681,0.678,0.923,0.988,0.955,Fe,1,5750.0,4.5,0.0,20000,14,25
34,6233.6,6233.4,6233.8,0.931,0.9,0.891,0.864,0.931,0.896,Fe,1,5750.0,4.5,0.0,20000,45,80
35,6240.3,6240.1,6240.8,0.987,0.917,0.913,0.845,0.987,0.963,Fe,1,5750.0,4.5,0.0,20000,54,97
36,6240.6,6240.2,6240.9,0.995,0.794,0.793,0.964,0.995,0.975,Fe,1,5750.0,4.5,0.0,20000,21,39
37,6246.3,6245.8,6246.8,0.985,0.589,0.588,0.974,0.985,0.98,Fe,1,5750.0,4.5,0.0,20000,10,19
38,6252.6,6252.2,6253.0,0.996,0.578,0.577,0.996,0.996,0.996,Fe,1,5750.0,4.5,0.0,20000,10,19
39,6253.8,6253.6,6254.3,0.643,0.883,0.864,0.619,0.643,0.638,Fe,1,5750.0,4.5,0.0,20000,38,68
40,6254.3,6253.8,6254.6,0.807,0.677,0.587,0.629,0.807,0.691,Fe,1,5750.0,4.5,0.0,20000,13,24
41,6256.4,6256.1,6256.6,0.905,0.699,0.67,0.882,0.905,0.893,Fe,1,5750.0,4.5,0.0,20000,14,26
42,6261.5,6261.3,6261.7,0.972,0.89,0.888,0.897,0.972,0.933,Fe,1,5750.0,4.5,0.0,20000,40,73
43,6265.1,6264.8,6265.6,0.965,0.674,0.67,0.962,0.965,0.964,Fe,1,5750.0,4.5,0.0,20000,13,24
44,6267.6,6267.5,6268.0,0.996,0.884,0.884,0.995,0.996,0.996,Fe,1,5750.0,4.5,0.0,20000,38,69
45,6270.2,6270.0,6270.5,0.977,0.773,0.769,0.911,0.977,0.943,Fe,1,5750.0,4.5,0.0,20000,19,35
46,6271.3,6271.1,6271.5,0.979,0.893,0.891,0.979,0.936,0.957,Fe,1,5750.0,4.5,0.0,20000,42,75
47,6274.1,6273.9,6274.3,0.955,0.937,0.935,0.94,0.955,0.947,Fe,1,5750.0,4.5,0.0,20000,71,127
48,6279.0,6278.8,6279.2,0.93,0.906,0.9,0.922,0.93,0.926,Fe,1,5750.0,4.5,0.0,20000,47,85
49,6280.6,6280.4,6281.0,0.962,0.725,0.712,0.855,0.962,0.917,Fe,1,5750.0,4.5,0.0,20000,16,29
50,6291.0,6290.5,6291.2,0.915,0.786,0.749,0.482,0.915,0.618,Fe,1,5750.0,4.5,0.0,20000,21,37
51,6293.6,6293.4,6294.1,0.913,0.911,0.907,0.877,0.913,0.901,Fe,1,5750.0,4.5,0.0,20000,50,90
52,6297.8,6297.5,6298.1,0.986,0.714,0.709,0.986,0.951,0.968,Fe,1,5750.0,4.5,0.0,20000,15,28
53,6301.5,6301.0,6302.0,0.992,0.588,0.586,0.992,0.973,0.982,Fe,1,5750.0,4.5,0.0,20000,10,19
54,6302.5,6302.0,6302.9,0.988,0.64,0.639,0.983,0.988,0.986,Fe,1,5750.0,4.5,0.0,20000,12,22
55,6304.8,6304.6,6305.0,0.973,0.857,0.85,0.973,0.856,0.911,Fe,1,5750.0,4.5,0.0,20000,31,56
56,6311.5,6311.3,6311.7,0.943,0.884,0.881,0.909,0.943,0.926,Fe,1,5750.0,4.5,0.0,20000,38,69
57,6315.3,6314.9,6315.8,0.973,0.697,0.695,0.858,0.973,0.928,Fe,1,5750.0,4.5,0.0,20000,14,26
58,6315.8,6315.3,6316.0,0.969,0.834,0.828,0.969,0.964,0.968,Fe,1,5750.0,4.5,0.0,20000,27,48
59,6318.0,6317.6,6318.4,0.976,0.601,0.597,0.976,0.966,0.971,Fe,1,5750.0,4.5,0.0,20000,11,20
60,6322.7,6322.4,6323.0,0.977,0.722,0.72,0.972,0.977,0.975,Fe,1,5750.0,4.5,0.0,20000,16,28
61,6330.8,6330.7,6331.0,0.968,0.934,0.933,0.968,0.959,0.964,Fe,1,5750.0,4.5,0.0,20000,68,121
62,6335.3,6335.0,6335.7,0.998,0.622,0.622,0.998,0.988,0.993,Fe,1,5750.0,4.5,0.0,20000,11,21
63,6336.8,6336.4,6337.2,0.986,0.618,0.616,0.986,0.97,0.978,Fe,1,5750.0,4.5,0.0,20000,11,20
64,6338.9,6338.6,6339.1,0.955,0.835,0.818,0.955,0.478,0.637,Fe,1,5750.0,4.5,0.0,20000,27,48
65,6344.1,6343.9,6344.4,0.927,0.775,0.767,0.927,0.871,0.899,Fe,1,5750.0,4.5,0.0,20000,20,35
66,6350.5,6350.2,6350.7,0.754,0.935,0.911,0.754,0.71,0.744,Fe,1,5750.0,4.5,0.0,20000,69,122
67,6355.0,6354.8,6355.3,0.933,0.748,0.739,0.929,0.933,0.931,Fe,1,5750.0,4.5,0.0,20000,17,31
68,6358.7,6358.4,6359.0,0.978,0.686,0.683,0.978,0.966,0.973,Fe,1,5750.0,4.5,0.0,20000,14,25
69,6362.9,6362.7,6363.1,0.811,0.846,0.809,0.75,0.811,0.78,Fe,1,5750.0,4.5,0.0,20000,29,51
70,6364.4,6364.2,6364.8,0.917,0.899,0.889,0.917,0.837,0.855,Fe,1,5750.0,4.5,0.0,20000,44,78
71,6364.7,6364.2,6364.9,0.931,0.893,0.881,0.832,0.931,0.856,Fe,1,5750.0,4.5,0.0,20000,42,74